test_lammps_file (written by ASE) 

1 	 atoms 
1  atom types
0.0      2.5455844122715714  xlo xhi
0.0      2.2045407685048599  ylo yhi
0.0      2.0784609690826525  zlo zhi
     1.2727922061357855      1.2727922061357855     0.73484692283495279  xy xz yz


Atoms 

     1   1                       0                       0                       0
